 Entering Gaussian System, Link 0=g09
 Initial command:
 /applications/gaussian9-C.01/g09/l1.exe /scratch/cont002/bruneval/gaussian/Gau-25561.inp -scrdir=/scratch/cont002/bruneval/gaussian/
 Entering Link 1 = /applications/gaussian9-C.01/g09/l1.exe PID=     25563.
  
 Copyright (c) 1988,1990,1992,1993,1995,1998,2003,2009,2011,
            Gaussian, Inc.  All Rights Reserved.
  
 This is part of the Gaussian(R) 09 program.  It is based on
 the Gaussian(R) 03 system (copyright 2003, Gaussian, Inc.),
 the Gaussian(R) 98 system (copyright 1998, Gaussian, Inc.),
 the Gaussian(R) 94 system (copyright 1995, Gaussian, Inc.),
 the Gaussian 92(TM) system (copyright 1992, Gaussian, Inc.),
 the Gaussian 90(TM) system (copyright 1990, Gaussian, Inc.),
 the Gaussian 88(TM) system (copyright 1988, Gaussian, Inc.),
 the Gaussian 86(TM) system (copyright 1986, Carnegie Mellon
 University), and the Gaussian 82(TM) system (copyright 1983,
 Carnegie Mellon University). Gaussian is a federally registered
 trademark of Gaussian, Inc.
  
 This software contains proprietary and confidential information,
 including trade secrets, belonging to Gaussian, Inc.
  
 This software is provided under written license and may be
 used, copied, transmitted, or stored only in accord with that
 written license.
  
 The following legend is applicable only to US Government
 contracts under FAR:
  
                    RESTRICTED RIGHTS LEGEND
  
 Use, reproduction and disclosure by the US Government is
 subject to restrictions as set forth in subparagraphs (a)
 and (c) of the Commercial Computer Software - Restricted
 Rights clause in FAR 52.227-19.
  
 Gaussian, Inc.
 340 Quinnipiac St., Bldg. 40, Wallingford CT 06492
  
  
 ---------------------------------------------------------------
 Warning -- This program may not be used in any manner that
 competes with the business of Gaussian, Inc. or will provide
 assistance to any competitor of Gaussian, Inc.  The licensee
 of this program is prohibited from giving any competitor of
 Gaussian, Inc. access to this program.  By using this program,
 the user acknowledges that Gaussian, Inc. is engaged in the
 business of creating and licensing software in the field of
 computational chemistry and represents and warrants to the
 licensee that it is not a competitor of Gaussian, Inc. and that
 it will not use this program in any manner prohibited above.
 ---------------------------------------------------------------
  

 Cite this work as:
 Gaussian 09, Revision C.01,
 M. J. Frisch, G. W. Trucks, H. B. Schlegel, G. E. Scuseria, 
 M. A. Robb, J. R. Cheeseman, G. Scalmani, V. Barone, B. Mennucci, 
 G. A. Petersson, H. Nakatsuji, M. Caricato, X. Li, H. P. Hratchian, 
 A. F. Izmaylov, J. Bloino, G. Zheng, J. L. Sonnenberg, M. Hada, 
 M. Ehara, K. Toyota, R. Fukuda, J. Hasegawa, M. Ishida, T. Nakajima, 
 Y. Honda, O. Kitao, H. Nakai, T. Vreven, J. A. Montgomery, Jr., 
 J. E. Peralta, F. Ogliaro, M. Bearpark, J. J. Heyd, E. Brothers, 
 K. N. Kudin, V. N. Staroverov, T. Keith, R. Kobayashi, J. Normand, 
 K. Raghavachari, A. Rendell, J. C. Burant, S. S. Iyengar, J. Tomasi, 
 M. Cossi, N. Rega, J. M. Millam, M. Klene, J. E. Knox, J. B. Cross, 
 V. Bakken, C. Adamo, J. Jaramillo, R. Gomperts, R. E. Stratmann, 
 O. Yazyev, A. J. Austin, R. Cammi, C. Pomelli, J. W. Ochterski, 
 R. L. Martin, K. Morokuma, V. G. Zakrzewski, G. A. Voth, 
 P. Salvador, J. J. Dannenberg, S. Dapprich, A. D. Daniels, 
 O. Farkas, J. B. Foresman, J. V. Ortiz, J. Cioslowski, 
 and D. J. Fox, Gaussian, Inc., Wallingford CT, 2010.
 
 ******************************************
 Gaussian 09:  EM64L-G09RevC.01 23-Sep-2011
                10-May-2012 
 ******************************************
 -----------------------------------
 #p MP2/aug-cc-pVTZ 6D 10F scf=tight
 -----------------------------------
 1/38=1/1;
 2/12=2,17=6,18=5,40=1/2;
 3/5=16,6=1,7=10,8=22,11=9,16=1,25=1,30=1/1,2,3;
 4//1;
 5/5=2,32=2,38=5/2;
 8/10=1/1;
 9/16=-3/6;
 6/7=2,8=2,9=2,10=2/1;
 99/5=1,9=1/99;
 Leave Link    1 at Thu May 10 09:02:56 2012, MaxMem=          0 cpu:       0.0
 (Enter /applications/gaussian9-C.01/g09/l101.exe)
 --
 h2
 --
 Charge =  0 Multiplicity = 1
 Symbolic Z-Matrix:
 H                    -0.37042   0.        0. 
 H                     0.37042   0.        0. 
 
 NAtoms=      2 NQM=        0 NQMF=       0 NMMI=      2 NMMIF=      0
                NMic=       0 NMicF=      0.
                    Isotopes and Nuclear Properties:
 (Nuclear quadrupole moments (NQMom) in fm**2, nuclear magnetic moments (NMagM)
  in nuclear magnetons)

  Atom         1           2
 IAtWgt=           1           1
 AtmWgt=   1.0078250   1.0078250
 NucSpn=           1           1
 AtZEff=   0.0000000   0.0000000
 NQMom=    0.0000000   0.0000000
 NMagM=    2.7928460   2.7928460
 Leave Link  101 at Thu May 10 09:02:56 2012, MaxMem=   33554432 cpu:       0.0
 (Enter /applications/gaussian9-C.01/g09/l202.exe)
                          Input orientation:                          
 ---------------------------------------------------------------------
 Center     Atomic      Atomic             Coordinates (Angstroms)
 Number     Number       Type             X           Y           Z
 ---------------------------------------------------------------------
      1          1           0       -0.370424    0.000000    0.000000
      2          1           0        0.370424    0.000000    0.000000
 ---------------------------------------------------------------------
 Stoichiometry    H2
 Framework group  D*H[C*(H.H)]
 Deg. of freedom     1
 Full point group                 D*H     NOp   8
 Largest Abelian subgroup         D2H     NOp   8
 Largest concise Abelian subgroup C2      NOp   2
                         Standard orientation:                         
 ---------------------------------------------------------------------
 Center     Atomic      Atomic             Coordinates (Angstroms)
 Number     Number       Type             X           Y           Z
 ---------------------------------------------------------------------
      1          1           0        0.000000    0.000000    0.370424
      2          1           0        0.000000    0.000000   -0.370424
 ---------------------------------------------------------------------
 Rotational constants (GHZ):      0.0000000   1827.2746235   1827.2746235
 Leave Link  202 at Thu May 10 09:02:56 2012, MaxMem=   33554432 cpu:       0.0
 (Enter /applications/gaussian9-C.01/g09/l301.exe)
 Standard basis: Aug-CC-pVTZ (6D, 10F)
 Ernie: Thresh=  0.10000D-02 Tol=  0.10000D-05 Strict=F.
 There are    13 symmetry adapted basis functions of AG  symmetry.
 There are     2 symmetry adapted basis functions of B1G symmetry.
 There are     5 symmetry adapted basis functions of B2G symmetry.
 There are     5 symmetry adapted basis functions of B3G symmetry.
 There are     2 symmetry adapted basis functions of AU  symmetry.
 There are    13 symmetry adapted basis functions of B1U symmetry.
 There are     5 symmetry adapted basis functions of B2U symmetry.
 There are     5 symmetry adapted basis functions of B3U symmetry.
 Integral buffers will be    131072 words long.
 Raffenetti 1 integral format.
 Two-electron integral symmetry is turned on.
    50 basis functions,    54 primitive gaussians,    50 cartesian basis functions
     1 alpha electrons        1 beta electrons
       nuclear repulsion energy         0.7142858030 Hartrees.
 IExCor=    0 DFT=F Ex=HF Corr=None ExCW=0 ScaHFX=  1.000000
 ScaDFX=  1.000000  1.000000  1.000000  1.000000 ScalE2=  1.000000  1.000000
 IRadAn=      0 IRanWt=     -1 IRanGd=            0 ICorTp=0
 NAtoms=    2 NActive=    2 NUniq=    1 SFac= 4.00D+00 NAtFMM=   60 NAOKFM=F Big=F
 Leave Link  301 at Thu May 10 09:02:56 2012, MaxMem=   33554432 cpu:       0.0
 (Enter /applications/gaussian9-C.01/g09/l302.exe)
 NPDir=0 NMtPBC=     1 NCelOv=     1 NCel=       1 NClECP=     1 NCelD=      1
         NCelK=      1 NCelE2=     1 NClLst=     1 CellRange=     0.0.
 One-electron integrals computed using PRISM.
 One-electron integral symmetry used in STVInt
 NBasis=    50 RedAO= T  NBF=    13     2     5     5     2    13     5     5
 NBsUse=    50 1.00D-06 NBFU=    13     2     5     5     2    13     5     5
 Leave Link  302 at Thu May 10 09:02:56 2012, MaxMem=   33554432 cpu:       0.1
 (Enter /applications/gaussian9-C.01/g09/l303.exe)
 DipDrv:  MaxL=1.
 Leave Link  303 at Thu May 10 09:02:56 2012, MaxMem=   33554432 cpu:       0.0
 (Enter /applications/gaussian9-C.01/g09/l401.exe)
 Harris functional with IExCor=  205 diagonalized for initial guess.
 ExpMin= 2.53D-02 ExpMax= 3.39D+01 ExpMxC= 3.39D+01 IAcc=3 IRadAn=         5 AccDes= 0.00D+00
 HarFok:  IExCor=  205 AccDes= 0.00D+00 IRadAn=         5 IDoV= 1
 ScaDFX=  1.000000  1.000000  1.000000  1.000000
 FoFCou: FMM=F IPFlag=           0 FMFlag=      100000 FMFlg1=           0
         NFxFlg=           0 DoJE=T BraDBF=F KetDBF=T FulRan=T
         Omega=  0.000000  0.000000  1.000000  0.000000  0.000000 ICntrl=     500 IOpCl=  0
         NMat0=    1 NMatS0=    1 NMatT0=    0 NMatD0=    1 NMtDS0=    0 NMtDT0=    0
         I1Cent=           4 NGrid=           0.
 Petite list used in FoFCou.
 Harris En= -1.18702326202878    
 Initial guess orbital symmetries:
       Occupied  (SGG)
       Virtual   (SGU) (SGG) (PIU) (PIU) (SGU) (SGG) (PIG) (PIG)
                 (SGG) (SGU) (SGU) (DLTG) (DLTG) (SGG) (PIU) (PIU)
                 (PIG) (PIG) (SGG) (SGU) (DLTU) (DLTU) (PIU) (PIU)
                 (SGU) (SGG) (PIG) (PIG) (SGU) (SGG) (SGU) (PIU)
                 (PIU) (DLTG) (DLTG) (SGG) (DLTU) (DLTU) (PIU)
                 (PIU) (PIG) (PIG) (SGU) (SGG) (PIG) (PIG) (SGU)
                 (SGG) (SGU)
 The electronic state of the initial guess is 1-SGG.
 Leave Link  401 at Thu May 10 09:02:56 2012, MaxMem=   33554432 cpu:       0.1
 (Enter /applications/gaussian9-C.01/g09/l502.exe)
 Closed shell SCF:
 Requested convergence on RMS density matrix=1.00D-08 within 128 cycles.
 Requested convergence on MAX density matrix=1.00D-06.
 Requested convergence on             energy=1.00D-06.
 No special actions if energy rises.
 Using DIIS extrapolation, IDIIS=  1040.
 Integral symmetry usage will be decided dynamically.
 Keep R1 ints in memory in canonical form, NReq=1659958.
 IEnd=       26494 IEndB=       26494 NGot=    33554432 MDV=    32733651
 LenX=    32733651 LenY=    32730710
 Symmetry not used in FoFDir.
 MinBra= 0 MaxBra= 2 Meth= 1.
 IRaf=       0 NMat=   1 IRICut=       1 DoRegI=T DoRafI=F ISym2E= 0 JSym2E=0.

 Cycle   1  Pass 1  IDiag  1:
 E= -1.13014040673143    
 DIIS: error= 1.49D-02 at cycle   1 NSaved=   1.
 NSaved= 1 IEnMin= 1 EnMin= -1.13014040673143     IErMin= 1 ErrMin= 1.49D-02
 ErrMax= 1.49D-02 EMaxC= 1.00D-01 BMatC= 2.53D-03 BMatP= 2.53D-03
 IDIUse=3 WtCom= 8.51D-01 WtEn= 1.49D-01
 Coeff-Com:  0.100D+01
 Coeff-En:   0.100D+01
 Coeff:      0.100D+01
 Gap=     0.642 Goal=   None    Shift=    0.000
 GapD=    0.642 DampG=2.000 DampE=0.500 DampFc=1.0000 IDamp=-1.
 RMSDP=3.81D-04 MaxDP=5.71D-03              OVMax= 2.99D-02

 Cycle   2  Pass 1  IDiag  1:
 E= -1.13299464960700     Delta-E=       -0.002854242876 Rises=F Damp=F
 DIIS: error= 2.28D-03 at cycle   2 NSaved=   2.
 NSaved= 2 IEnMin= 2 EnMin= -1.13299464960700     IErMin= 2 ErrMin= 2.28D-03
 ErrMax= 2.28D-03 EMaxC= 1.00D-01 BMatC= 3.75D-05 BMatP= 2.53D-03
 IDIUse=3 WtCom= 9.77D-01 WtEn= 2.28D-02
 Coeff-Com: -0.120D+00 0.112D+01
 Coeff-En:   0.000D+00 0.100D+01
 Coeff:     -0.117D+00 0.112D+01
 Gap=     0.643 Goal=   None    Shift=    0.000
 RMSDP=7.59D-05 MaxDP=8.80D-04 DE=-2.85D-03 OVMax= 5.61D-03

 Cycle   3  Pass 1  IDiag  1:
 E= -1.13306153903487     Delta-E=       -0.000066889428 Rises=F Damp=F
 DIIS: error= 1.95D-04 at cycle   3 NSaved=   3.
 NSaved= 3 IEnMin= 3 EnMin= -1.13306153903487     IErMin= 3 ErrMin= 1.95D-04
 ErrMax= 1.95D-04 EMaxC= 1.00D-01 BMatC= 3.71D-07 BMatP= 3.75D-05
 IDIUse=3 WtCom= 9.98D-01 WtEn= 1.95D-03
 Coeff-Com:  0.287D-01-0.274D+00 0.125D+01
 Coeff-En:   0.000D+00 0.000D+00 0.100D+01
 Coeff:      0.286D-01-0.274D+00 0.125D+01
 Gap=     0.643 Goal=   None    Shift=    0.000
 RMSDP=1.82D-05 MaxDP=3.02D-04 DE=-6.69D-05 OVMax= 7.19D-04

 Cycle   4  Pass 1  IDiag  1:
 E= -1.13306235855160     Delta-E=       -0.000000819517 Rises=F Damp=F
 DIIS: error= 1.12D-05 at cycle   4 NSaved=   4.
 NSaved= 4 IEnMin= 4 EnMin= -1.13306235855160     IErMin= 4 ErrMin= 1.12D-05
 ErrMax= 1.12D-05 EMaxC= 1.00D-01 BMatC= 1.70D-09 BMatP= 3.71D-07
 IDIUse=1 WtCom= 1.00D+00 WtEn= 0.00D+00
 Coeff-Com: -0.616D-02 0.595D-01-0.299D+00 0.125D+01
 Coeff:     -0.616D-02 0.595D-01-0.299D+00 0.125D+01
 Gap=     0.643 Goal=   None    Shift=    0.000
 RMSDP=2.39D-06 MaxDP=2.74D-05 DE=-8.20D-07 OVMax= 5.96D-05

 Cycle   5  Pass 1  IDiag  1:
 E= -1.13306236326452     Delta-E=       -0.000000004713 Rises=F Damp=F
 DIIS: error= 6.60D-07 at cycle   5 NSaved=   5.
 NSaved= 5 IEnMin= 5 EnMin= -1.13306236326452     IErMin= 5 ErrMin= 6.60D-07
 ErrMax= 6.60D-07 EMaxC= 1.00D-01 BMatC= 3.56D-12 BMatP= 1.70D-09
 IDIUse=1 WtCom= 1.00D+00 WtEn= 0.00D+00
 Coeff-Com:  0.696D-03-0.669D-02 0.344D-01-0.168D+00 0.114D+01
 Coeff:      0.696D-03-0.669D-02 0.344D-01-0.168D+00 0.114D+01
 Gap=     0.643 Goal=   None    Shift=    0.000
 RMSDP=8.09D-08 MaxDP=7.79D-07 DE=-4.71D-09 OVMax= 2.65D-06

 Cycle   6  Pass 1  IDiag  1:
 E= -1.13306236327436     Delta-E=       -0.000000000010 Rises=F Damp=F
 DIIS: error= 3.44D-08 at cycle   6 NSaved=   6.
 NSaved= 6 IEnMin= 6 EnMin= -1.13306236327436     IErMin= 6 ErrMin= 3.44D-08
 ErrMax= 3.44D-08 EMaxC= 1.00D-01 BMatC= 2.08D-14 BMatP= 3.56D-12
 IDIUse=1 WtCom= 1.00D+00 WtEn= 0.00D+00
 Coeff-Com: -0.300D-04 0.279D-03-0.152D-02 0.836D-02-0.116D+00 0.111D+01
 Coeff:     -0.300D-04 0.279D-03-0.152D-02 0.836D-02-0.116D+00 0.111D+01
 Gap=     0.643 Goal=   None    Shift=    0.000
 RMSDP=7.77D-09 MaxDP=8.05D-08 DE=-9.84D-12 OVMax= 2.10D-07

 SCF Done:  E(RHF) =  -1.13306236327     A.U. after    6 cycles
             Convg  =    0.7770D-08             -V/T =  2.0084
 KE= 1.123618958504D+00 PE=-3.629478884286D+00 EE= 6.585117594949D-01
 Leave Link  502 at Thu May 10 09:02:57 2012, MaxMem=   33554432 cpu:       0.1
 (Enter /applications/gaussian9-C.01/g09/l801.exe)
 Range of M.O.s used for correlation:     1    50
 NBasis=    50 NAE=     1 NBE=     1 NFC=     0 NFV=     0
 NROrb=     50 NOA=     1 NOB=     1 NVA=    49 NVB=    49

 **** Warning!!: The largest alpha MO coefficient is  0.94140807D+02

 Leave Link  801 at Thu May 10 09:02:57 2012, MaxMem=   33554432 cpu:       0.0
 (Enter /applications/gaussian9-C.01/g09/l906.exe)
 FulOut=F Deriv=F AODrv=F NAtomX=     2
   MMem=        5543  MDisk=           1 MDiskD=           1
  W3Min=        2450 MinDsk=       73676 NBas6D=          50
 NBas2D=        1353    NTT=        1275    LW2=     2000000
    MDV=    33538236 MDiskM=        8760 NBas2p=         728
 Fully in-core method, ICMem=     7875559.
 IMap=   1
 JobTyp=1 Pass  1 fully in-core, NPsUse=  1.
 Compute canonical integrals, IntTyp=   4.
 Symmetry not used in FoFDir.
 MinBra= 0 MaxBra= 2 Meth= 1.
 IRaf=       0 NMat=   1 IRICut=       1 DoRegI=T DoRafI=F ISym2E= 0 JSym2E=0.
 Spin components of T(2) and E(2):
     alpha-alpha T2 =       0.0000000000D+00 E2=      0.0000000000D+00
     alpha-beta  T2 =       0.1032046062D-01 E2=     -0.3209048225D-01
     beta-beta   T2 =       0.0000000000D+00 E2=      0.0000000000D+00
 The integrals were generated   1 times.
 ANorm=    0.1005146985D+01
 E2 =    -0.3209048225D-01 EUMP2 =    -0.11651528455271D+01
 Leave Link  906 at Thu May 10 09:02:57 2012, MaxMem=   33554432 cpu:       0.2
 (Enter /applications/gaussian9-C.01/g09/l601.exe)
 Copying SCF densities to generalized density rwf, IOpCl= 0 IROHF=0.

 **********************************************************************

            Population analysis using the SCF density.

 **********************************************************************

 Orbital symmetries:
       Occupied  (SGG)
       Virtual   (SGG) (SGU) (SGU) (PIU) (PIU) (SGG) (PIG) (PIG)
                 (SGG) (SGU) (SGU) (DLTG) (DLTG) (SGG) (PIG) (PIG)
                 (PIU) (PIU) (SGG) (SGU) (DLTU) (DLTU) (PIU) (PIU)
                 (SGU) (SGG) (PIG) (PIG) (SGU) (SGG) (SGU) (DLTG)
                 (DLTG) (PIU) (PIU) (SGG) (DLTU) (DLTU) (PIU) (PIU)
                 (PIG) (PIG) (SGU) (SGG) (SGU) (PIG) (PIG) (SGG)
                 (SGU)
 The electronic state is 1-SGG.
 Alpha  occ. eigenvalues --   -0.59442
 Alpha virt. eigenvalues --    0.04886   0.05231   0.18844   0.20897   0.20897
 Alpha virt. eigenvalues --    0.26944   0.29748   0.29748   0.32652   0.39563
 Alpha virt. eigenvalues --    0.53504   0.79143   0.79143   0.81895   0.88397
 Alpha virt. eigenvalues --    0.88397   0.93144   0.93144   0.98578   1.04233
 Alpha virt. eigenvalues --    1.04823   1.04823   1.06707   1.06707   1.25599
 Alpha virt. eigenvalues --    1.81511   1.93870   1.93870   2.31816   2.87795
 Alpha virt. eigenvalues --    3.05331   3.61567   3.61567   3.63387   3.63387
 Alpha virt. eigenvalues --    4.27045   4.40633   4.40633   4.43110   4.43110
 Alpha virt. eigenvalues --    4.48829   4.48829   5.13939   5.50989   5.74975
 Alpha virt. eigenvalues --    5.78536   5.78536   6.04711   9.95516
          Condensed to atoms (all electrons):
              1          2
     1  H    0.573174   0.426826
     2  H    0.426826   0.573174
 Mulliken atomic charges:
              1
     1  H    0.000000
     2  H    0.000000
 Sum of Mulliken atomic charges =   0.00000
 Mulliken charges with hydrogens summed into heavy atoms:
              1
 Sum of Mulliken charges with hydrogens summed into heavy atoms =   0.00000
 Electronic spatial extent (au):  <R**2>=              5.1510
 Charge=              0.0000 electrons
 Dipole moment (field-independent basis, Debye):
    X=              0.0000    Y=              0.0000    Z=              0.0000  Tot=              0.0000
 Quadrupole moment (field-independent basis, Debye-Ang):
   XX=             -2.0915   YY=             -2.0915   ZZ=             -1.4271
   XY=              0.0000   XZ=              0.0000   YZ=              0.0000
 Traceless Quadrupole moment (field-independent basis, Debye-Ang):
   XX=             -0.2215   YY=             -0.2215   ZZ=              0.4430
   XY=              0.0000   XZ=              0.0000   YZ=              0.0000
 Octapole moment (field-independent basis, Debye-Ang**2):
  XXX=              0.0000  YYY=              0.0000  ZZZ=              0.0000  XYY=              0.0000
  XXY=              0.0000  XXZ=              0.0000  XZZ=              0.0000  YZZ=              0.0000
  YYZ=              0.0000  XYZ=              0.0000
 Hexadecapole moment (field-independent basis, Debye-Ang**3):
 XXXX=             -2.0854 YYYY=             -2.0854 ZZZZ=             -2.6977 XXXY=              0.0000
 XXXZ=              0.0000 YYYX=              0.0000 YYYZ=              0.0000 ZZZX=              0.0000
 ZZZY=              0.0000 XXYY=             -0.6951 XXZZ=             -0.8173 YYZZ=             -0.8173
 XXYZ=              0.0000 YYXZ=              0.0000 ZZXY=              0.0000
 N-N= 7.142858030122D-01 E-N=-3.629478862953D+00  KE= 1.123618958504D+00
 Symmetry AG   KE= 1.123618958504D+00
 Symmetry B1G  KE=-3.675965177687D-52
 Symmetry B2G  KE= 3.929623233239D-32
 Symmetry B3G  KE= 3.929623233239D-32
 Symmetry AU   KE= 1.359686783563D-66
 Symmetry B1U  KE= 3.183469082104D-28
 Symmetry B2U  KE= 1.325464620996D-34
 Symmetry B3U  KE= 1.325464620996D-34
 Leave Link  601 at Thu May 10 09:02:57 2012, MaxMem=   33554432 cpu:       0.0
 (Enter /applications/gaussian9-C.01/g09/l9999.exe)
 1\1\GINC-TITANE1000\SP\RMP2-FC\Aug-CC-pVTZ\H2\BRUNEVAL\10-May-2012\0\\
 #p MP2/aug-cc-pVTZ 6D 10F scf=tight\\h2\\0,1\H,0,-0.370424,0.,0.\H,0,0
 .370424,0.,0.\\Version=EM64L-G09RevC.01\State=1-SGG\HF=-1.1330624\MP2=
 -1.1651528\RMSD=7.770e-09\PG=D*H [C*(H1.H1)]\\@


 HIGGLEDY-PIGGLEDY
 NIC'LAUS COPERNICUS
 LOOKED AT THE UNIVERSE,
 SPOKE TO THE THRONG;
 GIVE UP YOUR PTOLOMY,
 RISE UP AND FOLLOW ME,
 HELIOCENTRICALLY
 PTOLEMY'S WRONG.
   -- NANCY L. STARK
 Job cpu time:  0 days  0 hours  0 minutes  0.8 seconds.
 File lengths (MBytes):  RWF=      5 Int=      0 D2E=      0 Chk=      1 Scr=      1
 Normal termination of Gaussian 09 at Thu May 10 09:02:57 2012.
