 Entering Gaussian System, Link 0=g09
 Initial command:
 /applications/gaussian9-C.01/g09/l1.exe /scratch/cont002/bruneval/gaussian/Gau-5129.inp -scrdir=/scratch/cont002/bruneval/gaussian/
 Entering Link 1 = /applications/gaussian9-C.01/g09/l1.exe PID=      5130.
  
 Copyright (c) 1988,1990,1992,1993,1995,1998,2003,2009,2011,
            Gaussian, Inc.  All Rights Reserved.
  
 This is part of the Gaussian(R) 09 program.  It is based on
 the Gaussian(R) 03 system (copyright 2003, Gaussian, Inc.),
 the Gaussian(R) 98 system (copyright 1998, Gaussian, Inc.),
 the Gaussian(R) 94 system (copyright 1995, Gaussian, Inc.),
 the Gaussian 92(TM) system (copyright 1992, Gaussian, Inc.),
 the Gaussian 90(TM) system (copyright 1990, Gaussian, Inc.),
 the Gaussian 88(TM) system (copyright 1988, Gaussian, Inc.),
 the Gaussian 86(TM) system (copyright 1986, Carnegie Mellon
 University), and the Gaussian 82(TM) system (copyright 1983,
 Carnegie Mellon University). Gaussian is a federally registered
 trademark of Gaussian, Inc.
  
 This software contains proprietary and confidential information,
 including trade secrets, belonging to Gaussian, Inc.
  
 This software is provided under written license and may be
 used, copied, transmitted, or stored only in accord with that
 written license.
  
 The following legend is applicable only to US Government
 contracts under FAR:
  
                    RESTRICTED RIGHTS LEGEND
  
 Use, reproduction and disclosure by the US Government is
 subject to restrictions as set forth in subparagraphs (a)
 and (c) of the Commercial Computer Software - Restricted
 Rights clause in FAR 52.227-19.
  
 Gaussian, Inc.
 340 Quinnipiac St., Bldg. 40, Wallingford CT 06492
  
  
 ---------------------------------------------------------------
 Warning -- This program may not be used in any manner that
 competes with the business of Gaussian, Inc. or will provide
 assistance to any competitor of Gaussian, Inc.  The licensee
 of this program is prohibited from giving any competitor of
 Gaussian, Inc. access to this program.  By using this program,
 the user acknowledges that Gaussian, Inc. is engaged in the
 business of creating and licensing software in the field of
 computational chemistry and represents and warrants to the
 licensee that it is not a competitor of Gaussian, Inc. and that
 it will not use this program in any manner prohibited above.
 ---------------------------------------------------------------
  

 Cite this work as:
 Gaussian 09, Revision C.01,
 M. J. Frisch, G. W. Trucks, H. B. Schlegel, G. E. Scuseria, 
 M. A. Robb, J. R. Cheeseman, G. Scalmani, V. Barone, B. Mennucci, 
 G. A. Petersson, H. Nakatsuji, M. Caricato, X. Li, H. P. Hratchian, 
 A. F. Izmaylov, J. Bloino, G. Zheng, J. L. Sonnenberg, M. Hada, 
 M. Ehara, K. Toyota, R. Fukuda, J. Hasegawa, M. Ishida, T. Nakajima, 
 Y. Honda, O. Kitao, H. Nakai, T. Vreven, J. A. Montgomery, Jr., 
 J. E. Peralta, F. Ogliaro, M. Bearpark, J. J. Heyd, E. Brothers, 
 K. N. Kudin, V. N. Staroverov, T. Keith, R. Kobayashi, J. Normand, 
 K. Raghavachari, A. Rendell, J. C. Burant, S. S. Iyengar, J. Tomasi, 
 M. Cossi, N. Rega, J. M. Millam, M. Klene, J. E. Knox, J. B. Cross, 
 V. Bakken, C. Adamo, J. Jaramillo, R. Gomperts, R. E. Stratmann, 
 O. Yazyev, A. J. Austin, R. Cammi, C. Pomelli, J. W. Ochterski, 
 R. L. Martin, K. Morokuma, V. G. Zakrzewski, G. A. Voth, 
 P. Salvador, J. J. Dannenberg, S. Dapprich, A. D. Daniels, 
 O. Farkas, J. B. Foresman, J. V. Ortiz, J. Cioslowski, 
 and D. J. Fox, Gaussian, Inc., Wallingford CT, 2010.
 
 ******************************************
 Gaussian 09:  EM64L-G09RevC.01 23-Sep-2011
                28-Mar-2012 
 ******************************************
 ---------------------
 #p HF/3-21G scf=tight
 ---------------------
 1/38=1/1;
 2/12=2,17=6,18=5,40=1/2;
 3/5=5,11=9,16=1,25=1,30=1/1,2,3;
 4//1;
 5/5=2,32=2,38=5/2;
 6/7=2,8=2,9=2,10=2,28=1/1;
 99/5=1,9=1/99;
 Leave Link    1 at Wed Mar 28 14:51:59 2012, MaxMem=          0 cpu:       0.0
 (Enter /applications/gaussian9-C.01/g09/l101.exe)
 --
 h1
 --
 Charge =  0 Multiplicity = 2
 Symbolic Z-Matrix:
 H                     0.        0.        0. 
 
 NAtoms=      1 NQM=        0 NQMF=       0 NMMI=      1 NMMIF=      0
                NMic=       0 NMicF=      0.
                    Isotopes and Nuclear Properties:
 (Nuclear quadrupole moments (NQMom) in fm**2, nuclear magnetic moments (NMagM)
  in nuclear magnetons)

  Atom         1
 IAtWgt=           1
 AtmWgt=   1.0078250
 NucSpn=           1
 AtZEff=   0.0000000
 NQMom=    0.0000000
 NMagM=    2.7928460
 Leave Link  101 at Wed Mar 28 14:51:59 2012, MaxMem=   33554432 cpu:       0.0
 (Enter /applications/gaussian9-C.01/g09/l202.exe)
                          Input orientation:                          
 ---------------------------------------------------------------------
 Center     Atomic      Atomic             Coordinates (Angstroms)
 Number     Number       Type             X           Y           Z
 ---------------------------------------------------------------------
      1          1           0        0.000000    0.000000    0.000000
 ---------------------------------------------------------------------
 Stoichiometry    H(2)
 Framework group  OH[O(H)]
 Deg. of freedom     0
 Full point group                 OH      NOp  48
 Largest Abelian subgroup         D2H     NOp   8
 Largest concise Abelian subgroup C1      NOp   1
                         Standard orientation:                         
 ---------------------------------------------------------------------
 Center     Atomic      Atomic             Coordinates (Angstroms)
 Number     Number       Type             X           Y           Z
 ---------------------------------------------------------------------
      1          1           0        0.000000    0.000000    0.000000
 ---------------------------------------------------------------------
 Leave Link  202 at Wed Mar 28 14:51:59 2012, MaxMem=   33554432 cpu:       0.0
 (Enter /applications/gaussian9-C.01/g09/l301.exe)
 Standard basis: 3-21G (6D, 7F)
 Ernie: Thresh=  0.10000D-02 Tol=  0.10000D-05 Strict=F.
 There are     2 symmetry adapted basis functions of AG  symmetry.
 There are     0 symmetry adapted basis functions of B1G symmetry.
 There are     0 symmetry adapted basis functions of B2G symmetry.
 There are     0 symmetry adapted basis functions of B3G symmetry.
 There are     0 symmetry adapted basis functions of AU  symmetry.
 There are     0 symmetry adapted basis functions of B1U symmetry.
 There are     0 symmetry adapted basis functions of B2U symmetry.
 There are     0 symmetry adapted basis functions of B3U symmetry.
 Integral buffers will be    131072 words long.
 Raffenetti 2 integral format.
 Two-electron integral symmetry is turned on.
     2 basis functions,     3 primitive gaussians,     2 cartesian basis functions
     1 alpha electrons        0 beta electrons
       nuclear repulsion energy         0.0000000000 Hartrees.
 IExCor=    0 DFT=F Ex=HF Corr=None ExCW=0 ScaHFX=  1.000000
 ScaDFX=  1.000000  1.000000  1.000000  1.000000 ScalE2=  1.000000  1.000000
 IRadAn=      0 IRanWt=     -1 IRanGd=            0 ICorTp=0
 NAtoms=    1 NActive=    1 NUniq=    1 SFac= 1.00D+00 NAtFMM=   60 NAOKFM=F Big=F
 Leave Link  301 at Wed Mar 28 14:51:59 2012, MaxMem=   33554432 cpu:       0.0
 (Enter /applications/gaussian9-C.01/g09/l302.exe)
 NPDir=0 NMtPBC=     1 NCelOv=     1 NCel=       1 NClECP=     1 NCelD=      1
         NCelK=      1 NCelE2=     1 NClLst=     1 CellRange=     0.0.
 One-electron integrals computed using PRISM.
 NBasis=     2 RedAO= T  NBF=     2     0     0     0     0     0     0     0
 NBsUse=     2 1.00D-06 NBFU=     2     0     0     0     0     0     0     0
 Leave Link  302 at Wed Mar 28 14:51:59 2012, MaxMem=   33554432 cpu:       0.0
 (Enter /applications/gaussian9-C.01/g09/l303.exe)
 DipDrv:  MaxL=1.
 Leave Link  303 at Wed Mar 28 14:51:59 2012, MaxMem=   33554432 cpu:       0.0
 (Enter /applications/gaussian9-C.01/g09/l401.exe)
 Harris functional with IExCor=  205 diagonalized for initial guess.
 ExpMin= 1.83D-01 ExpMax= 5.45D+00 ExpMxC= 5.45D+00 IAcc=1 IRadAn=         1 AccDes= 0.00D+00
 HarFok:  IExCor=  205 AccDes= 0.00D+00 IRadAn=         1 IDoV= 1
 ScaDFX=  1.000000  1.000000  1.000000  1.000000
 FoFCou: FMM=F IPFlag=           0 FMFlag=      100000 FMFlg1=           0
         NFxFlg=           0 DoJE=T BraDBF=F KetDBF=T FulRan=T
         Omega=  0.000000  0.000000  1.000000  0.000000  0.000000 ICntrl=     500 IOpCl=  0
         NMat0=    1 NMatS0=    1 NMatT0=    0 NMatD0=    1 NMtDS0=    0 NMtDT0=    0
         I1Cent=           4 NGrid=           0.
 Petite list used in FoFCou.
 Harris En=-0.454261629951517    
 Initial guess orbital symmetries:
 Alpha Orbitals:
       Occupied  (A1G)
       Virtual   (A1G)
 Beta  Orbitals:
       Virtual   (A1G) (A1G)
 The electronic state of the initial guess is 2-A1G.
 Initial guess <Sx>= 0.0000 <Sy>= 0.0000 <Sz>= 0.5000 <S**2>= 0.7500 S= 0.5000
 Leave Link  401 at Wed Mar 28 14:51:59 2012, MaxMem=   33554432 cpu:       0.1
 (Enter /applications/gaussian9-C.01/g09/l502.exe)
 UHF open shell SCF:
 Requested convergence on RMS density matrix=1.00D-08 within 128 cycles.
 Requested convergence on MAX density matrix=1.00D-06.
 Requested convergence on             energy=1.00D-06.
 No special actions if energy rises.
 Using DIIS extrapolation, IDIIS=  1040.
 Integral symmetry usage will be decided dynamically.
 Keep R1 and R2 ints in memory in canonical form, NReq=819854.
 IEnd=       19821 IEndB=       19821 NGot=    33554432 MDV=    33551674
 LenX=    33551674 LenY=    33550792
 Symmetry not used in FoFDir.
 MinBra= 0 MaxBra= 0 Meth= 1.
 IRaf=       0 NMat=   1 IRICut=       1 DoRegI=T DoRafI=F ISym2E= 0 JSym2E=0.

 Cycle   1  Pass 1  IDiag  1:
 E=-0.494577558853624    
 DIIS: error= 2.09D-02 at cycle   1 NSaved=   1.
 NSaved= 1 IEnMin= 1 EnMin=-0.494577558853624     IErMin= 1 ErrMin= 2.09D-02
 ErrMax= 2.09D-02 EMaxC= 1.00D-01 BMatC= 3.50D-03 BMatP= 3.50D-03
 IDIUse=3 WtCom= 7.91D-01 WtEn= 2.09D-01
 Coeff-Com:  0.100D+01
 Coeff-En:   0.100D+01
 Coeff:      0.100D+01
 Gap=     1.562 Goal=   None    Shift=    0.000
 GapD=    1.562 DampG=2.000 DampE=0.500 DampFc=1.0000 IDamp=-1.
 RMSDP=1.89D-02 MaxDP=4.30D-02              OVMax= 0.00D+00

 Cycle   2  Pass 1  IDiag  1:
 E=-0.496044588186533     Delta-E=       -0.001467029333 Rises=F Damp=F
 DIIS: error= 6.46D-03 at cycle   2 NSaved=   2.
 NSaved= 2 IEnMin= 2 EnMin=-0.496044588186533     IErMin= 2 ErrMin= 6.46D-03
 ErrMax= 6.46D-03 EMaxC= 1.00D-01 BMatC= 3.34D-04 BMatP= 3.50D-03
 IDIUse=3 WtCom= 9.35D-01 WtEn= 6.46D-02
 Coeff-Com: -0.446D+00 0.145D+01
 Coeff-En:   0.000D+00 0.100D+01
 Coeff:     -0.417D+00 0.142D+01
 Gap=     1.565 Goal=   None    Shift=    0.000
 RMSDP=8.13D-03 MaxDP=1.85D-02 DE=-1.47D-03 OVMax= 0.00D+00

 Cycle   3  Pass 1  IDiag  1:
 E=-0.496198575024090     Delta-E=       -0.000153986838 Rises=F Damp=F
 DIIS: error= 1.28D-04 at cycle   3 NSaved=   3.
 NSaved= 3 IEnMin= 3 EnMin=-0.496198575024090     IErMin= 3 ErrMin= 1.28D-04
 ErrMax= 1.28D-04 EMaxC= 1.00D-01 BMatC= 1.32D-07 BMatP= 3.34D-04
 IDIUse=3 WtCom= 9.99D-01 WtEn= 1.28D-03
 Large coefficients: NSaved=  3 BigCof=    0.00 CofMax=   10.00 Det= 0.00D+00
 Inversion failed.  Reducing to  2 matrices.
 Coeff-Com: -0.203D-01 0.102D+01
 Coeff-En:   0.000D+00 0.100D+01
 Coeff:     -0.203D-01 0.102D+01
 Gap=     1.565 Goal=   None    Shift=    0.000
 RMSDP=1.64D-04 MaxDP=3.73D-04 DE=-1.54D-04 OVMax= 0.00D+00

 Cycle   4  Pass 1  IDiag  1:
 E=-0.496198636018150     Delta-E=       -0.000000060994 Rises=F Damp=F
 DIIS: error= 5.09D-08 at cycle   4 NSaved=   3.
 NSaved= 3 IEnMin= 3 EnMin=-0.496198636018150     IErMin= 3 ErrMin= 5.09D-08
 ErrMax= 5.09D-08 EMaxC= 1.00D-01 BMatC= 2.07D-14 BMatP= 1.32D-07
 IDIUse=1 WtCom= 1.00D+00 WtEn= 0.00D+00
 Large coefficients: NSaved=  3 BigCof=    0.00 CofMax=   10.00 Det= 0.00D+00
 Inversion failed.  Reducing to  2 matrices.
 Coeff-Com: -0.396D-03 0.100D+01
 Coeff:     -0.396D-03 0.100D+01
 Gap=     1.565 Goal=   None    Shift=    0.000
 RMSDP=6.51D-08 MaxDP=1.48D-07 DE=-6.10D-08 OVMax= 0.00D+00

 Cycle   5  Pass 1  IDiag  1:
 E=-0.496198636018159     Delta-E=        0.000000000000 Rises=F Damp=F
 DIIS: error= 1.45D-16 at cycle   5 NSaved=   3.
 NSaved= 3 IEnMin= 3 EnMin=-0.496198636018159     IErMin= 3 ErrMin= 1.45D-16
 ErrMax= 1.45D-16 EMaxC= 1.00D-01 BMatC= 1.69D-31 BMatP= 2.07D-14
 IDIUse=1 WtCom= 1.00D+00 WtEn= 0.00D+00
 Coeff-Com:  0.000D+00 0.000D+00 0.100D+01
 Coeff:      0.000D+00 0.000D+00 0.100D+01
 Gap=     1.565 Goal=   None    Shift=    0.000
 RMSDP=6.21D-17 MaxDP=1.11D-16 DE=-9.05D-15 OVMax= 0.00D+00

 SCF Done:  E(UHF) = -0.496198636018     A.U. after    5 cycles
             Convg  =    0.6206D-16             -V/T =  1.9645
 <Sx>= 0.0000 <Sy>= 0.0000 <Sz>= 0.5000 <S**2>= 0.7500 S= 0.5000
 <L.S>= 0.000000000000E+00
 KE= 5.144743151261D-01 PE=-1.010672951144D+00 EE= 0.000000000000D+00
 Annihilation of the first spin contaminant:
 S**2 before annihilation     0.7500,   after     0.7500
 Leave Link  502 at Wed Mar 28 14:52:00 2012, MaxMem=   33554432 cpu:       0.0
 (Enter /applications/gaussian9-C.01/g09/l601.exe)
 Copying SCF densities to generalized density rwf, IOpCl= 1 IROHF=0.

 **********************************************************************

            Population analysis using the SCF density.

 **********************************************************************

 Orbital symmetries:
 Alpha Orbitals:
       Occupied  (A1G)
       Virtual   (A1G)
 Beta  Orbitals:
       Virtual   (A1G) (A1G)
 The electronic state is 2-A1G.
 Alpha  occ. eigenvalues --   -0.49620
 Alpha virt. eigenvalues --    1.06900
  Beta virt. eigenvalues --    0.11344   1.25789
          Condensed to atoms (all electrons):
              1
     1  H    1.000000
 Mulliken atomic charges:
              1
     1  H    0.000000
 Sum of Mulliken atomic charges =   0.00000
 Mulliken charges with hydrogens summed into heavy atoms:
              1
 Sum of Mulliken charges with hydrogens summed into heavy atoms =   0.00000
          Atomic-Atomic Spin Densities.
              1
     1  H    1.000000
 Mulliken atomic spin densities:
              1
     1  H    1.000000
 Sum of Mulliken atomic spin densities =   1.00000
 Electronic spatial extent (au):  <R**2>=              2.7095
 Charge=              0.0000 electrons
 Dipole moment (field-independent basis, Debye):
    X=              0.0000    Y=              0.0000    Z=              0.0000  Tot=              0.0000
 Quadrupole moment (field-independent basis, Debye-Ang):
   XX=             -1.2148   YY=             -1.2148   ZZ=             -1.2148
   XY=              0.0000   XZ=              0.0000   YZ=              0.0000
 Traceless Quadrupole moment (field-independent basis, Debye-Ang):
   XX=              0.0000   YY=              0.0000   ZZ=              0.0000
   XY=              0.0000   XZ=              0.0000   YZ=              0.0000
 Octapole moment (field-independent basis, Debye-Ang**2):
  XXX=              0.0000  YYY=              0.0000  ZZZ=              0.0000  XYY=              0.0000
  XXY=              0.0000  XXZ=              0.0000  XZZ=              0.0000  YZZ=              0.0000
  YYZ=              0.0000  XYZ=              0.0000
 Hexadecapole moment (field-independent basis, Debye-Ang**3):
 XXXX=             -1.1863 YYYY=             -1.1863 ZZZZ=             -1.1863 XXXY=              0.0000
 XXXZ=              0.0000 YYYX=              0.0000 YYYZ=              0.0000 ZZZX=              0.0000
 ZZZY=              0.0000 XXYY=             -0.3954 XXZZ=             -0.3954 YYZZ=             -0.3954
 XXYZ=              0.0000 YYXZ=              0.0000 ZZXY=              0.0000
 N-N= 0.000000000000D+00 E-N=-1.010672951144D+00  KE= 5.144743151261D-01
 Symmetry AG   KE= 5.144743151261D-01
 Symmetry B1G  KE= 0.000000000000D+00
 Symmetry B2G  KE= 0.000000000000D+00
 Symmetry B3G  KE= 0.000000000000D+00
 Symmetry AU   KE= 0.000000000000D+00
 Symmetry B1U  KE= 0.000000000000D+00
 Symmetry B2U  KE= 0.000000000000D+00
 Symmetry B3U  KE= 0.000000000000D+00
                          Isotropic Fermi Contact Couplings
        Atom                 a.u.       MegaHertz       Gauss      10(-4) cm-1
     1  H(1)               0.24978    1116.50867     398.39804     372.42720
 --------------------------------------------------------
       Center         ----  Spin Dipole Couplings  ----
                      3XX-RR        3YY-RR        3ZZ-RR
 --------------------------------------------------------
     1   Atom        0.000000      0.000000      0.000000
 --------------------------------------------------------
                        XY            XZ            YZ
 --------------------------------------------------------
     1   Atom        0.000000      0.000000      0.000000
 --------------------------------------------------------


 ---------------------------------------------------------------------------------
              Anisotropic Spin Dipole Couplings in Principal Axis System
 ---------------------------------------------------------------------------------

       Atom             a.u.   MegaHertz   Gauss  10(-4) cm-1        Axes

              Baa     0.0000     0.000     0.000     0.000  1.0000  0.0000  0.0000
     1 H(1)   Bbb     0.0000     0.000     0.000     0.000  0.0000  1.0000  0.0000
              Bcc     0.0000     0.000     0.000     0.000  0.0000  0.0000  1.0000
 

 ---------------------------------------------------------------------------------

 No NMR shielding tensors so no spin-rotation constants.
 Leave Link  601 at Wed Mar 28 14:52:00 2012, MaxMem=   33554432 cpu:       0.1
 (Enter /applications/gaussian9-C.01/g09/l9999.exe)
 1\1\GINC-TITANE1000\SP\UHF\3-21G\H1(2)\BRUNEVAL\28-Mar-2012\0\\#p HF/3
 -21G scf=tight\\h1\\0,2\H,0,0.,0.,0.\\Version=EM64L-G09RevC.01\State=2
 -A1G\HF=-0.4961986\S2=0.75\S2-1=0.\S2A=0.75\RMSD=6.206e-17\Dipole=0.,0
 .,0.\Quadrupole=0.,0.,0.,0.,0.,0.\PG=OH [O(H1)]\\@


 IF AT FIRST YOU DON'T SUCCEED, TRY, TRY AGAIN.
 THEN GIVE UP;
 THERE'S NO USE BEING A DAMN FOOL ABOUT IT.

                                 -- W. C. FIELDS
 Job cpu time:  0 days  0 hours  0 minutes  0.5 seconds.
 File lengths (MBytes):  RWF=      5 Int=      0 D2E=      0 Chk=      1 Scr=      1
 Normal termination of Gaussian 09 at Wed Mar 28 14:52:00 2012.
