 Entering Gaussian System, Link 0=g09
 Initial command:
 /applications/gaussian9-C.01/g09/l1.exe /scratch/cont002/bruneval/gaussian/Gau-25036.inp -scrdir=/scratch/cont002/bruneval/gaussian/
 Entering Link 1 = /applications/gaussian9-C.01/g09/l1.exe PID=     25038.
  
 Copyright (c) 1988,1990,1992,1993,1995,1998,2003,2009,2011,
            Gaussian, Inc.  All Rights Reserved.
  
 This is part of the Gaussian(R) 09 program.  It is based on
 the Gaussian(R) 03 system (copyright 2003, Gaussian, Inc.),
 the Gaussian(R) 98 system (copyright 1998, Gaussian, Inc.),
 the Gaussian(R) 94 system (copyright 1995, Gaussian, Inc.),
 the Gaussian 92(TM) system (copyright 1992, Gaussian, Inc.),
 the Gaussian 90(TM) system (copyright 1990, Gaussian, Inc.),
 the Gaussian 88(TM) system (copyright 1988, Gaussian, Inc.),
 the Gaussian 86(TM) system (copyright 1986, Carnegie Mellon
 University), and the Gaussian 82(TM) system (copyright 1983,
 Carnegie Mellon University). Gaussian is a federally registered
 trademark of Gaussian, Inc.
  
 This software contains proprietary and confidential information,
 including trade secrets, belonging to Gaussian, Inc.
  
 This software is provided under written license and may be
 used, copied, transmitted, or stored only in accord with that
 written license.
  
 The following legend is applicable only to US Government
 contracts under FAR:
  
                    RESTRICTED RIGHTS LEGEND
  
 Use, reproduction and disclosure by the US Government is
 subject to restrictions as set forth in subparagraphs (a)
 and (c) of the Commercial Computer Software - Restricted
 Rights clause in FAR 52.227-19.
  
 Gaussian, Inc.
 340 Quinnipiac St., Bldg. 40, Wallingford CT 06492
  
  
 ---------------------------------------------------------------
 Warning -- This program may not be used in any manner that
 competes with the business of Gaussian, Inc. or will provide
 assistance to any competitor of Gaussian, Inc.  The licensee
 of this program is prohibited from giving any competitor of
 Gaussian, Inc. access to this program.  By using this program,
 the user acknowledges that Gaussian, Inc. is engaged in the
 business of creating and licensing software in the field of
 computational chemistry and represents and warrants to the
 licensee that it is not a competitor of Gaussian, Inc. and that
 it will not use this program in any manner prohibited above.
 ---------------------------------------------------------------
  

 Cite this work as:
 Gaussian 09, Revision C.01,
 M. J. Frisch, G. W. Trucks, H. B. Schlegel, G. E. Scuseria, 
 M. A. Robb, J. R. Cheeseman, G. Scalmani, V. Barone, B. Mennucci, 
 G. A. Petersson, H. Nakatsuji, M. Caricato, X. Li, H. P. Hratchian, 
 A. F. Izmaylov, J. Bloino, G. Zheng, J. L. Sonnenberg, M. Hada, 
 M. Ehara, K. Toyota, R. Fukuda, J. Hasegawa, M. Ishida, T. Nakajima, 
 Y. Honda, O. Kitao, H. Nakai, T. Vreven, J. A. Montgomery, Jr., 
 J. E. Peralta, F. Ogliaro, M. Bearpark, J. J. Heyd, E. Brothers, 
 K. N. Kudin, V. N. Staroverov, T. Keith, R. Kobayashi, J. Normand, 
 K. Raghavachari, A. Rendell, J. C. Burant, S. S. Iyengar, J. Tomasi, 
 M. Cossi, N. Rega, J. M. Millam, M. Klene, J. E. Knox, J. B. Cross, 
 V. Bakken, C. Adamo, J. Jaramillo, R. Gomperts, R. E. Stratmann, 
 O. Yazyev, A. J. Austin, R. Cammi, C. Pomelli, J. W. Ochterski, 
 R. L. Martin, K. Morokuma, V. G. Zakrzewski, G. A. Voth, 
 P. Salvador, J. J. Dannenberg, S. Dapprich, A. D. Daniels, 
 O. Farkas, J. B. Foresman, J. V. Ortiz, J. Cioslowski, 
 and D. J. Fox, Gaussian, Inc., Wallingford CT, 2010.
 
 ******************************************
 Gaussian 09:  EM64L-G09RevC.01 23-Sep-2011
                28-Mar-2012 
 ******************************************
 ---------------------
 #p HF/3-21G scf=tight
 ---------------------
 1/38=1/1;
 2/12=2,17=6,18=5,40=1/2;
 3/5=5,11=9,16=1,25=1,30=1/1,2,3;
 4//1;
 5/5=2,32=2,38=5/2;
 6/7=2,8=2,9=2,10=2,28=1/1;
 99/5=1,9=1/99;
 Leave Link    1 at Wed Mar 28 15:30:03 2012, MaxMem=          0 cpu:       0.0
 (Enter /applications/gaussian9-C.01/g09/l101.exe)
 --
 he
 --
 Charge =  0 Multiplicity = 1
 Symbolic Z-Matrix:
 He                    0.        0.        0. 
 
 NAtoms=      1 NQM=        0 NQMF=       0 NMMI=      1 NMMIF=      0
                NMic=       0 NMicF=      0.
                    Isotopes and Nuclear Properties:
 (Nuclear quadrupole moments (NQMom) in fm**2, nuclear magnetic moments (NMagM)
  in nuclear magnetons)

  Atom         1
 IAtWgt=           4
 AtmWgt=   4.0026033
 NucSpn=           0
 AtZEff=   0.0000000
 NQMom=    0.0000000
 NMagM=    0.0000000
 Leave Link  101 at Wed Mar 28 15:30:03 2012, MaxMem=   33554432 cpu:       0.0
 (Enter /applications/gaussian9-C.01/g09/l202.exe)
                          Input orientation:                          
 ---------------------------------------------------------------------
 Center     Atomic      Atomic             Coordinates (Angstroms)
 Number     Number       Type             X           Y           Z
 ---------------------------------------------------------------------
      1          2           0        0.000000    0.000000    0.000000
 ---------------------------------------------------------------------
 Stoichiometry    He
 Framework group  OH[O(He)]
 Deg. of freedom     0
 Full point group                 OH      NOp  48
 Largest Abelian subgroup         D2H     NOp   8
 Largest concise Abelian subgroup C1      NOp   1
                         Standard orientation:                         
 ---------------------------------------------------------------------
 Center     Atomic      Atomic             Coordinates (Angstroms)
 Number     Number       Type             X           Y           Z
 ---------------------------------------------------------------------
      1          2           0        0.000000    0.000000    0.000000
 ---------------------------------------------------------------------
 Leave Link  202 at Wed Mar 28 15:30:03 2012, MaxMem=   33554432 cpu:       0.0
 (Enter /applications/gaussian9-C.01/g09/l301.exe)
 Standard basis: 3-21G (6D, 7F)
 Ernie: Thresh=  0.10000D-02 Tol=  0.10000D-05 Strict=F.
 There are     2 symmetry adapted basis functions of AG  symmetry.
 There are     0 symmetry adapted basis functions of B1G symmetry.
 There are     0 symmetry adapted basis functions of B2G symmetry.
 There are     0 symmetry adapted basis functions of B3G symmetry.
 There are     0 symmetry adapted basis functions of AU  symmetry.
 There are     0 symmetry adapted basis functions of B1U symmetry.
 There are     0 symmetry adapted basis functions of B2U symmetry.
 There are     0 symmetry adapted basis functions of B3U symmetry.
 Integral buffers will be    131072 words long.
 Raffenetti 1 integral format.
 Two-electron integral symmetry is turned on.
     2 basis functions,     3 primitive gaussians,     2 cartesian basis functions
     1 alpha electrons        1 beta electrons
       nuclear repulsion energy         0.0000000000 Hartrees.
 IExCor=    0 DFT=F Ex=HF Corr=None ExCW=0 ScaHFX=  1.000000
 ScaDFX=  1.000000  1.000000  1.000000  1.000000 ScalE2=  1.000000  1.000000
 IRadAn=      0 IRanWt=     -1 IRanGd=            0 ICorTp=0
 NAtoms=    1 NActive=    1 NUniq=    1 SFac= 1.00D+00 NAtFMM=   60 NAOKFM=F Big=F
 Leave Link  301 at Wed Mar 28 15:30:03 2012, MaxMem=   33554432 cpu:       0.0
 (Enter /applications/gaussian9-C.01/g09/l302.exe)
 NPDir=0 NMtPBC=     1 NCelOv=     1 NCel=       1 NClECP=     1 NCelD=      1
         NCelK=      1 NCelE2=     1 NClLst=     1 CellRange=     0.0.
 One-electron integrals computed using PRISM.
 NBasis=     2 RedAO= T  NBF=     2     0     0     0     0     0     0     0
 NBsUse=     2 1.00D-06 NBFU=     2     0     0     0     0     0     0     0
 Leave Link  302 at Wed Mar 28 15:30:03 2012, MaxMem=   33554432 cpu:       0.0
 (Enter /applications/gaussian9-C.01/g09/l303.exe)
 DipDrv:  MaxL=1.
 Leave Link  303 at Wed Mar 28 15:30:03 2012, MaxMem=   33554432 cpu:       0.0
 (Enter /applications/gaussian9-C.01/g09/l401.exe)
 Harris functional with IExCor=  205 diagonalized for initial guess.
 ExpMin= 3.83D-01 ExpMax= 1.36D+01 ExpMxC= 1.36D+01 IAcc=1 IRadAn=         1 AccDes= 0.00D+00
 HarFok:  IExCor=  205 AccDes= 0.00D+00 IRadAn=         1 IDoV= 1
 ScaDFX=  1.000000  1.000000  1.000000  1.000000
 FoFCou: FMM=F IPFlag=           0 FMFlag=      100000 FMFlg1=           0
         NFxFlg=           0 DoJE=T BraDBF=F KetDBF=T FulRan=T
         Omega=  0.000000  0.000000  1.000000  0.000000  0.000000 ICntrl=     500 IOpCl=  0
         NMat0=    1 NMatS0=    1 NMatT0=    0 NMatD0=    1 NMtDS0=    0 NMtDT0=    0
         I1Cent=           4 NGrid=           0.
 Petite list used in FoFCou.
 Harris En= -2.84270729610307    
 Initial guess orbital symmetries:
       Occupied  (A1G)
       Virtual   (A1G)
 The electronic state of the initial guess is 1-A1G.
 Leave Link  401 at Wed Mar 28 15:30:03 2012, MaxMem=   33554432 cpu:       0.1
 (Enter /applications/gaussian9-C.01/g09/l502.exe)
 Closed shell SCF:
 Requested convergence on RMS density matrix=1.00D-08 within 128 cycles.
 Requested convergence on MAX density matrix=1.00D-06.
 Requested convergence on             energy=1.00D-06.
 No special actions if energy rises.
 Using DIIS extrapolation, IDIIS=  1040.
 Integral symmetry usage will be decided dynamically.
 Keep R1 ints in memory in canonical form, NReq=819841.
 IEnd=       19821 IEndB=       19821 NGot=    33554432 MDV=    33551680
 LenX=    33551680 LenY=    33550798
 Symmetry not used in FoFDir.
 MinBra= 0 MaxBra= 0 Meth= 1.
 IRaf=       0 NMat=   1 IRICut=       1 DoRegI=T DoRafI=F ISym2E= 0 JSym2E=0.

 Cycle   1  Pass 1  IDiag  1:
 E= -2.83509400015073    
 DIIS: error= 1.43D-02 at cycle   1 NSaved=   1.
 NSaved= 1 IEnMin= 1 EnMin= -2.83509400015073     IErMin= 1 ErrMin= 1.43D-02
 ErrMax= 1.43D-02 EMaxC= 1.00D-01 BMatC= 8.17D-04 BMatP= 8.17D-04
 IDIUse=3 WtCom= 8.57D-01 WtEn= 1.43D-01
 Coeff-Com:  0.100D+01
 Coeff-En:   0.100D+01
 Coeff:      0.100D+01
 Gap=     2.984 Goal=   None    Shift=    0.000
 GapD=    2.984 DampG=2.000 DampE=0.500 DampFc=1.0000 IDamp=-1.
 RMSDP=8.59D-03 MaxDP=1.34D-02              OVMax= 0.00D+00

 Cycle   2  Pass 1  IDiag  1:
 E= -2.83567733948961     Delta-E=       -0.000583339339 Rises=F Damp=F
 DIIS: error= 9.40D-04 at cycle   2 NSaved=   2.
 NSaved= 2 IEnMin= 2 EnMin= -2.83567733948961     IErMin= 2 ErrMin= 9.40D-04
 ErrMax= 9.40D-04 EMaxC= 1.00D-01 BMatC= 3.53D-06 BMatP= 8.17D-04
 IDIUse=3 WtCom= 9.91D-01 WtEn= 9.40D-03
 Coeff-Com: -0.704D-01 0.107D+01
 Coeff-En:   0.000D+00 0.100D+01
 Coeff:     -0.698D-01 0.107D+01
 Gap=     2.985 Goal=   None    Shift=    0.000
 RMSDP=6.03D-04 MaxDP=9.36D-04 DE=-5.83D-04 OVMax= 0.00D+00

 Cycle   3  Pass 1  IDiag  1:
 E= -2.83567987364001     Delta-E=       -0.000002534150 Rises=F Damp=F
 DIIS: error= 4.83D-07 at cycle   3 NSaved=   3.
 NSaved= 3 IEnMin= 3 EnMin= -2.83567987364001     IErMin= 3 ErrMin= 4.83D-07
 ErrMax= 4.83D-07 EMaxC= 1.00D-01 BMatC= 9.32D-13 BMatP= 3.53D-06
 IDIUse=1 WtCom= 1.00D+00 WtEn= 0.00D+00
 Large coefficients: NSaved=  3 BigCof=    0.00 CofMax=   10.00 Det= 4.24D-22
 Inversion failed.  Reducing to  2 matrices.
 Coeff-Com: -0.514D-03 0.100D+01
 Coeff:     -0.514D-03 0.100D+01
 Gap=     2.985 Goal=   None    Shift=    0.000
 RMSDP=3.10D-07 MaxDP=4.81D-07 DE=-2.53D-06 OVMax= 0.00D+00

 Cycle   4  Pass 1  IDiag  1:
 E= -2.83567987364067     Delta-E=       -0.000000000001 Rises=F Damp=F
 DIIS: error= 3.25D-12 at cycle   4 NSaved=   3.
 NSaved= 3 IEnMin= 3 EnMin= -2.83567987364067     IErMin= 3 ErrMin= 3.25D-12
 ErrMax= 3.25D-12 EMaxC= 1.00D-01 BMatC= 4.22D-23 BMatP= 9.32D-13
 IDIUse=1 WtCom= 1.00D+00 WtEn= 0.00D+00
 Large coefficients: NSaved=  3 BigCof=    0.00 CofMax=   10.00 Det= 2.02D-28
 Inversion failed.  Reducing to  2 matrices.
 Coeff-Com:  0.673D-05 0.100D+01
 Coeff:      0.673D-05 0.100D+01
 Gap=     2.985 Goal=   None    Shift=    0.000
 RMSDP=2.08D-12 MaxDP=3.23D-12 DE=-6.68D-13 OVMax= 0.00D+00

 SCF Done:  E(RHF) =  -2.83567987364     A.U. after    4 cycles
             Convg  =    0.2085D-11             -V/T =  2.0000
 KE= 2.835725452189D+00 PE=-6.699942182731D+00 EE= 1.028536856901D+00
 Leave Link  502 at Wed Mar 28 15:30:03 2012, MaxMem=   33554432 cpu:       0.0
 (Enter /applications/gaussian9-C.01/g09/l601.exe)
 Copying SCF densities to generalized density rwf, IOpCl= 0 IROHF=0.

 **********************************************************************

            Population analysis using the SCF density.

 **********************************************************************

 Orbital symmetries:
       Occupied  (A1G)
       Virtual   (A1G)
 The electronic state is 1-A1G.
 Alpha  occ. eigenvalues --   -0.90357
 Alpha virt. eigenvalues --    2.08170
          Condensed to atoms (all electrons):
              1
     1  He   2.000000
 Mulliken atomic charges:
              1
     1  He   0.000000
 Sum of Mulliken atomic charges =   0.00000
 Mulliken charges with hydrogens summed into heavy atoms:
              1
     1  He   0.000000
 Sum of Mulliken charges with hydrogens summed into heavy atoms =   0.00000
 Electronic spatial extent (au):  <R**2>=              2.2558
 Charge=              0.0000 electrons
 Dipole moment (field-independent basis, Debye):
    X=              0.0000    Y=              0.0000    Z=              0.0000  Tot=              0.0000
 Quadrupole moment (field-independent basis, Debye-Ang):
   XX=             -1.0114   YY=             -1.0114   ZZ=             -1.0114
   XY=              0.0000   XZ=              0.0000   YZ=              0.0000
 Traceless Quadrupole moment (field-independent basis, Debye-Ang):
   XX=              0.0000   YY=              0.0000   ZZ=              0.0000
   XY=              0.0000   XZ=              0.0000   YZ=              0.0000
 Octapole moment (field-independent basis, Debye-Ang**2):
  XXX=              0.0000  YYY=              0.0000  ZZZ=              0.0000  XYY=              0.0000
  XXY=              0.0000  XXZ=              0.0000  XZZ=              0.0000  YZZ=              0.0000
  YYZ=              0.0000  XYZ=              0.0000
 Hexadecapole moment (field-independent basis, Debye-Ang**3):
 XXXX=             -0.4558 YYYY=             -0.4558 ZZZZ=             -0.4558 XXXY=              0.0000
 XXXZ=              0.0000 YYYX=              0.0000 YYYZ=              0.0000 ZZZX=              0.0000
 ZZZY=              0.0000 XXYY=             -0.1519 XXZZ=             -0.1519 YYZZ=             -0.1519
 XXYZ=              0.0000 YYXZ=              0.0000 ZZXY=              0.0000
 N-N= 0.000000000000D+00 E-N=-6.699942182728D+00  KE= 2.835725452189D+00
 Symmetry AG   KE= 2.835725452189D+00
 Symmetry B1G  KE= 0.000000000000D+00
 Symmetry B2G  KE= 0.000000000000D+00
 Symmetry B3G  KE= 0.000000000000D+00
 Symmetry AU   KE= 0.000000000000D+00
 Symmetry B1U  KE= 0.000000000000D+00
 Symmetry B2U  KE= 0.000000000000D+00
 Symmetry B3U  KE= 0.000000000000D+00
 No NMR shielding tensors so no spin-rotation constants.
 Leave Link  601 at Wed Mar 28 15:30:03 2012, MaxMem=   33554432 cpu:       0.1
 (Enter /applications/gaussian9-C.01/g09/l9999.exe)
 1\1\GINC-TITANE1000\SP\RHF\3-21G\He1\BRUNEVAL\28-Mar-2012\0\\#p HF/3-2
 1G scf=tight\\he\\0,1\He,0,0.,0.,0.\\Version=EM64L-G09RevC.01\State=1-
 A1G\HF=-2.8356799\RMSD=2.085e-12\Dipole=0.,0.,0.\Quadrupole=0.,0.,0.,0
 .,0.,0.\PG=OH [O(He1)]\\@


 IF YOU WISH TO UNDERSTAND THE FRAGRANCE OF THE ROSE, 
 OR THE TENACITY OF THE OAK; 
 IF YOU ARE NOT SATISFIED UNTIL YOU KNOW THE SECRET PATHS 
 BY WHICH THE SUNSHINE AND THE AIR ACHIEVE THESE WONDERS; 
 IF YOU WISH TO SEE THE PATTERN WHICH UNDERLIES ONE LARGE FIELD OF 
 HUMAN EXPERIENCE AND HUMAN MEASUREMENT, THEN TAKE UP CHEMISTRY.

                                         -- C. A. COULSON, 1973.
 Job cpu time:  0 days  0 hours  0 minutes  0.4 seconds.
 File lengths (MBytes):  RWF=      5 Int=      0 D2E=      0 Chk=      1 Scr=      1
 Normal termination of Gaussian 09 at Wed Mar 28 15:30:03 2012.
