 Entering Gaussian System, Link 0=g09
 Initial command:
 /applications/gaussian9-C.01/g09/l1.exe /home/cont002/bruneval/gaussian/Gau-14346.inp -scrdir=/home/cont002/bruneval/gaussian/
 Entering Link 1 = /applications/gaussian9-C.01/g09/l1.exe PID=     14347.
  
 Copyright (c) 1988,1990,1992,1993,1995,1998,2003,2009,2011,
            Gaussian, Inc.  All Rights Reserved.
  
 This is part of the Gaussian(R) 09 program.  It is based on
 the Gaussian(R) 03 system (copyright 2003, Gaussian, Inc.),
 the Gaussian(R) 98 system (copyright 1998, Gaussian, Inc.),
 the Gaussian(R) 94 system (copyright 1995, Gaussian, Inc.),
 the Gaussian 92(TM) system (copyright 1992, Gaussian, Inc.),
 the Gaussian 90(TM) system (copyright 1990, Gaussian, Inc.),
 the Gaussian 88(TM) system (copyright 1988, Gaussian, Inc.),
 the Gaussian 86(TM) system (copyright 1986, Carnegie Mellon
 University), and the Gaussian 82(TM) system (copyright 1983,
 Carnegie Mellon University). Gaussian is a federally registered
 trademark of Gaussian, Inc.
  
 This software contains proprietary and confidential information,
 including trade secrets, belonging to Gaussian, Inc.
  
 This software is provided under written license and may be
 used, copied, transmitted, or stored only in accord with that
 written license.
  
 The following legend is applicable only to US Government
 contracts under FAR:
  
                    RESTRICTED RIGHTS LEGEND
  
 Use, reproduction and disclosure by the US Government is
 subject to restrictions as set forth in subparagraphs (a)
 and (c) of the Commercial Computer Software - Restricted
 Rights clause in FAR 52.227-19.
  
 Gaussian, Inc.
 340 Quinnipiac St., Bldg. 40, Wallingford CT 06492
  
  
 ---------------------------------------------------------------
 Warning -- This program may not be used in any manner that
 competes with the business of Gaussian, Inc. or will provide
 assistance to any competitor of Gaussian, Inc.  The licensee
 of this program is prohibited from giving any competitor of
 Gaussian, Inc. access to this program.  By using this program,
 the user acknowledges that Gaussian, Inc. is engaged in the
 business of creating and licensing software in the field of
 computational chemistry and represents and warrants to the
 licensee that it is not a competitor of Gaussian, Inc. and that
 it will not use this program in any manner prohibited above.
 ---------------------------------------------------------------
  

 Cite this work as:
 Gaussian 09, Revision C.01,
 M. J. Frisch, G. W. Trucks, H. B. Schlegel, G. E. Scuseria, 
 M. A. Robb, J. R. Cheeseman, G. Scalmani, V. Barone, B. Mennucci, 
 G. A. Petersson, H. Nakatsuji, M. Caricato, X. Li, H. P. Hratchian, 
 A. F. Izmaylov, J. Bloino, G. Zheng, J. L. Sonnenberg, M. Hada, 
 M. Ehara, K. Toyota, R. Fukuda, J. Hasegawa, M. Ishida, T. Nakajima, 
 Y. Honda, O. Kitao, H. Nakai, T. Vreven, J. A. Montgomery, Jr., 
 J. E. Peralta, F. Ogliaro, M. Bearpark, J. J. Heyd, E. Brothers, 
 K. N. Kudin, V. N. Staroverov, T. Keith, R. Kobayashi, J. Normand, 
 K. Raghavachari, A. Rendell, J. C. Burant, S. S. Iyengar, J. Tomasi, 
 M. Cossi, N. Rega, J. M. Millam, M. Klene, J. E. Knox, J. B. Cross, 
 V. Bakken, C. Adamo, J. Jaramillo, R. Gomperts, R. E. Stratmann, 
 O. Yazyev, A. J. Austin, R. Cammi, C. Pomelli, J. W. Ochterski, 
 R. L. Martin, K. Morokuma, V. G. Zakrzewski, G. A. Voth, 
 P. Salvador, J. J. Dannenberg, S. Dapprich, A. D. Daniels, 
 O. Farkas, J. B. Foresman, J. V. Ortiz, J. Cioslowski, 
 and D. J. Fox, Gaussian, Inc., Wallingford CT, 2010.
 
 ******************************************
 Gaussian 09:  EM64L-G09RevC.01 23-Sep-2011
                 6-Sep-2012 
 ******************************************
 ----------------------------------
 #p PBEPBE/cc-pVDZ 6D 10F scf=tight
 ----------------------------------
 1/38=1/1;
 2/12=2,17=6,18=5,40=1/2;
 3/5=16,8=22,11=2,16=1,25=1,30=1,74=1009/1,2,3;
 4//1;
 5/5=2,32=2,38=5/2;
 6/7=2,8=2,9=2,10=2,28=1/1;
 99/5=1,9=1/99;
 Leave Link    1 at Thu Sep  6 15:53:30 2012, MaxMem=          0 cpu:       0.0
 (Enter /applications/gaussian9-C.01/g09/l101.exe)
 --
 li
 --
 Charge =  0 Multiplicity = 2
 Symbolic Z-Matrix:
 li
 
 NAtoms=      1 NQM=        0 NQMF=       0 NMMI=      1 NMMIF=      0
                NMic=       0 NMicF=      0.
                    Isotopes and Nuclear Properties:
 (Nuclear quadrupole moments (NQMom) in fm**2, nuclear magnetic moments (NMagM)
  in nuclear magnetons)

  Atom         1
 IAtWgt=           7
 AtmWgt=   7.0160045
 NucSpn=           3
 AtZEff=   0.0000000
 NQMom=   -4.0100000
 NMagM=    3.2564240
 Leave Link  101 at Thu Sep  6 15:53:30 2012, MaxMem=   33554432 cpu:       0.0
 (Enter /applications/gaussian9-C.01/g09/l202.exe)
                          Input orientation:                          
 ---------------------------------------------------------------------
 Center     Atomic      Atomic             Coordinates (Angstroms)
 Number     Number       Type             X           Y           Z
 ---------------------------------------------------------------------
      1          3           0        0.000000    0.000000    0.000000
 ---------------------------------------------------------------------
 Stoichiometry    Li(2)
 Framework group  OH[O(Li)]
 Deg. of freedom     0
 Full point group                 OH      NOp  48
 Largest Abelian subgroup         D2H     NOp   8
 Largest concise Abelian subgroup C1      NOp   1
                         Standard orientation:                         
 ---------------------------------------------------------------------
 Center     Atomic      Atomic             Coordinates (Angstroms)
 Number     Number       Type             X           Y           Z
 ---------------------------------------------------------------------
      1          3           0        0.000000    0.000000    0.000000
 ---------------------------------------------------------------------
 Leave Link  202 at Thu Sep  6 15:53:30 2012, MaxMem=   33554432 cpu:       0.0
 (Enter /applications/gaussian9-C.01/g09/l301.exe)
 Standard basis: CC-pVDZ (6D, 10F)
 Ernie: Thresh=  0.10000D-02 Tol=  0.10000D-05 Strict=F.
 Ernie:  3 primitive shells out of 22 were deleted.
 There are     6 symmetry adapted basis functions of AG  symmetry.
 There are     1 symmetry adapted basis functions of B1G symmetry.
 There are     1 symmetry adapted basis functions of B2G symmetry.
 There are     1 symmetry adapted basis functions of B3G symmetry.
 There are     0 symmetry adapted basis functions of AU  symmetry.
 There are     2 symmetry adapted basis functions of B1U symmetry.
 There are     2 symmetry adapted basis functions of B2U symmetry.
 There are     2 symmetry adapted basis functions of B3U symmetry.
 Integral buffers will be    131072 words long.
 Raffenetti 2 integral format.
 Two-electron integral symmetry is turned on.
    15 basis functions,    32 primitive gaussians,    15 cartesian basis functions
     2 alpha electrons        1 beta electrons
       nuclear repulsion energy         0.0000000000 Hartrees.
 IExCor= 1009 DFT=T Ex=PBE Corr=PBE ExCW=0 ScaHFX=  0.000000
 ScaDFX=  1.000000  1.000000  1.000000  1.000000 ScalE2=  1.000000  1.000000
 IRadAn=      0 IRanWt=     -1 IRanGd=            0 ICorTp=0
 NAtoms=    1 NActive=    1 NUniq=    1 SFac= 1.00D+00 NAtFMM=   60 NAOKFM=F Big=F
 Leave Link  301 at Thu Sep  6 15:53:30 2012, MaxMem=   33554432 cpu:       0.0
 (Enter /applications/gaussian9-C.01/g09/l302.exe)
 NPDir=0 NMtPBC=     1 NCelOv=     1 NCel=       1 NClECP=     1 NCelD=      1
         NCelK=      1 NCelE2=     1 NClLst=     1 CellRange=     0.0.
 One-electron integrals computed using PRISM.
 NBasis=    15 RedAO= T  NBF=     6     1     1     1     0     2     2     2
 NBsUse=    15 1.00D-06 NBFU=     6     1     1     1     0     2     2     2
 Precomputing XC quadrature grid using
 IXCGrd= 2 IRadAn=           0 IRanWt=          -1 IRanGd=           0 AccXCQ= 0.00D+00.
 NRdTot=      59 NPtTot=        7316 NUsed=        7755 NTot=        7787
 NSgBfM=    15    15    15    15    15 NAtAll=     1     1.
 Leave Link  302 at Thu Sep  6 15:53:30 2012, MaxMem=   33554432 cpu:       0.1
 (Enter /applications/gaussian9-C.01/g09/l303.exe)
 DipDrv:  MaxL=1.
 Leave Link  303 at Thu Sep  6 15:53:31 2012, MaxMem=   33554432 cpu:       0.0
 (Enter /applications/gaussian9-C.01/g09/l401.exe)
 Harris functional with IExCor= 1009 diagonalized for initial guess.
 ExpMin= 2.40D-02 ExpMax= 1.47D+03 ExpMxC= 5.03D+01 IAcc=3 IRadAn=         5 AccDes= 0.00D+00
 HarFok:  IExCor= 1009 AccDes= 0.00D+00 IRadAn=         5 IDoV= 1
 ScaDFX=  1.000000  1.000000  1.000000  1.000000
 FoFCou: FMM=F IPFlag=           0 FMFlag=      100000 FMFlg1=           0
         NFxFlg=           0 DoJE=T BraDBF=F KetDBF=T FulRan=T
         Omega=  0.000000  0.000000  1.000000  0.000000  0.000000 ICntrl=     500 IOpCl=  0
         NMat0=    1 NMatS0=    1 NMatT0=    0 NMatD0=    1 NMtDS0=    0 NMtDT0=    0
         I1Cent=           4 NGrid=           0.
 Petite list used in FoFCou.
 Harris En= -7.44983822291694    
 Initial guess orbital symmetries:
 Alpha Orbitals:
       Occupied  (A1G) (A1G)
       Virtual   (T1U) (T1U) (T1U) (T1U) (T1U) (T1U) (A1G) (T2G)
                 (T2G) (T2G) (EG) (EG) (A1G)
 Beta  Orbitals:
       Occupied  (A1G)
       Virtual   (A1G) (T1U) (T1U) (T1U) (T1U) (T1U) (T1U) (A1G)
                 (T2G) (T2G) (T2G) (EG) (EG) (A1G)
 The electronic state of the initial guess is 2-A1G.
 Initial guess <Sx>= 0.0000 <Sy>= 0.0000 <Sz>= 0.5000 <S**2>= 0.7500 S= 0.5000
 Leave Link  401 at Thu Sep  6 15:53:31 2012, MaxMem=   33554432 cpu:       0.1
 (Enter /applications/gaussian9-C.01/g09/l502.exe)
 UHF open shell SCF:
 Requested convergence on RMS density matrix=1.00D-08 within 128 cycles.
 Requested convergence on MAX density matrix=1.00D-06.
 Requested convergence on             energy=1.00D-06.
 No special actions if energy rises.
 Using DIIS extrapolation, IDIIS=  1040.
 Integral symmetry usage will be decided dynamically.
         7733 words used for storage of precomputed grid.
 Keep J ints in memory in canonical form, NReq=892659.
 IEnd=       27759 IEndB=       27759 NGot=    33554432 MDV=    33536488
 LenX=    33536488 LenY=    33535606
 Symmetry not used in FoFDir.
 MinBra= 0 MaxBra= 2 Meth= 1.
 IRaf=       0 NMat=   1 IRICut=       1 DoRegI=T DoRafI=F ISym2E= 0 JSym2E=0.

 Cycle   1  Pass 1  IDiag  1:
 E= -7.46045635699103    
 DIIS: error= 5.26D-03 at cycle   1 NSaved=   1.
 NSaved= 1 IEnMin= 1 EnMin= -7.46045635699103     IErMin= 1 ErrMin= 5.26D-03
 ErrMax= 5.26D-03 EMaxC= 1.00D-01 BMatC= 3.74D-04 BMatP= 3.74D-04
 IDIUse=3 WtCom= 9.47D-01 WtEn= 5.26D-02
 Coeff-Com:  0.100D+01
 Coeff-En:   0.100D+01
 Coeff:      0.100D+01
 Gap=     0.070 Goal=   None    Shift=    0.000
 Gap=     1.986 Goal=   None    Shift=    0.000
 GapD=    0.070 DampG=0.500 DampE=1.000 DampFc=0.5000 IDamp=-1.
 Damping current iteration by 5.00D-01
 RMSDP=7.13D-03 MaxDP=1.15D-01              OVMax= 5.42D-02

 Cycle   2  Pass 1  IDiag  1:
 E= -7.46076267067871     Delta-E=       -0.000306313688 Rises=F Damp=T
 DIIS: error= 2.76D-03 at cycle   2 NSaved=   2.
 NSaved= 2 IEnMin= 2 EnMin= -7.46076267067871     IErMin= 2 ErrMin= 2.76D-03
 ErrMax= 2.76D-03 EMaxC= 1.00D-01 BMatC= 8.85D-05 BMatP= 3.74D-04
 IDIUse=3 WtCom= 9.72D-01 WtEn= 2.76D-02
 Coeff-Com: -0.916D+00 0.192D+01
 Coeff-En:   0.000D+00 0.100D+01
 Coeff:     -0.891D+00 0.189D+01
 Gap=     0.069 Goal=   None    Shift=    0.000
 Gap=     1.918 Goal=   None    Shift=    0.000
 RMSDP=3.77D-03 MaxDP=6.18D-02 DE=-3.06D-04 OVMax= 2.12D-03

 Cycle   3  Pass 1  IDiag  1:
 E= -7.46107737341872     Delta-E=       -0.000314702740 Rises=F Damp=F
 DIIS: error= 2.48D-05 at cycle   3 NSaved=   3.
 NSaved= 3 IEnMin= 3 EnMin= -7.46107737341872     IErMin= 3 ErrMin= 2.48D-05
 ErrMax= 2.48D-05 EMaxC= 1.00D-01 BMatC= 1.10D-08 BMatP= 8.85D-05
 IDIUse=1 WtCom= 1.00D+00 WtEn= 0.00D+00
 Coeff-Com: -0.245D-01 0.517D-01 0.973D+00
 Coeff:     -0.245D-01 0.517D-01 0.973D+00
 Gap=     0.069 Goal=   None    Shift=    0.000
 Gap=     1.921 Goal=   None    Shift=    0.000
 RMSDP=3.31D-05 MaxDP=5.59D-04 DE=-3.15D-04 OVMax= 2.16D-04

 Cycle   4  Pass 1  IDiag  1:
 E= -7.46107738506784     Delta-E=       -0.000000011649 Rises=F Damp=F
 DIIS: error= 2.71D-06 at cycle   4 NSaved=   4.
 NSaved= 4 IEnMin= 4 EnMin= -7.46107738506784     IErMin= 4 ErrMin= 2.71D-06
 ErrMax= 2.71D-06 EMaxC= 1.00D-01 BMatC= 7.13D-11 BMatP= 1.10D-08
 IDIUse=1 WtCom= 1.00D+00 WtEn= 0.00D+00
 Coeff-Com:  0.686D-03-0.154D-02-0.699D-01 0.107D+01
 Coeff:      0.686D-03-0.154D-02-0.699D-01 0.107D+01
 Gap=     0.069 Goal=   None    Shift=    0.000
 Gap=     1.921 Goal=   None    Shift=    0.000
 RMSDP=3.32D-06 MaxDP=5.93D-05 DE=-1.16D-08 OVMax= 1.45D-05

 Cycle   5  Pass 1  IDiag  1:
 E= -7.46107738514561     Delta-E=       -0.000000000078 Rises=F Damp=F
 DIIS: error= 2.08D-07 at cycle   5 NSaved=   5.
 NSaved= 5 IEnMin= 5 EnMin= -7.46107738514561     IErMin= 5 ErrMin= 2.08D-07
 ErrMax= 2.08D-07 EMaxC= 1.00D-01 BMatC= 5.05D-13 BMatP= 7.13D-11
 IDIUse=1 WtCom= 1.00D+00 WtEn= 0.00D+00
 Coeff-Com: -0.518D-04 0.710D-04 0.252D-02-0.970D-01 0.109D+01
 Coeff:     -0.518D-04 0.710D-04 0.252D-02-0.970D-01 0.109D+01
 Gap=     0.069 Goal=   None    Shift=    0.000
 Gap=     1.921 Goal=   None    Shift=    0.000
 RMSDP=2.07D-07 MaxDP=2.96D-06 DE=-7.78D-11 OVMax= 8.73D-08

 Cycle   6  Pass 1  IDiag  1:
 E= -7.46107738514594     Delta-E=        0.000000000000 Rises=F Damp=F
 DIIS: error= 2.64D-09 at cycle   6 NSaved=   6.
 NSaved= 6 IEnMin= 6 EnMin= -7.46107738514594     IErMin= 6 ErrMin= 2.64D-09
 ErrMax= 2.64D-09 EMaxC= 1.00D-01 BMatC= 7.95D-17 BMatP= 5.05D-13
 IDIUse=1 WtCom= 1.00D+00 WtEn= 0.00D+00
 Coeff-Com: -0.201D-05 0.555D-05-0.436D-04 0.205D-02-0.285D-01 0.103D+01
 Coeff:     -0.201D-05 0.555D-05-0.436D-04 0.205D-02-0.285D-01 0.103D+01
 Gap=     0.069 Goal=   None    Shift=    0.000
 Gap=     1.921 Goal=   None    Shift=    0.000
 RMSDP=3.79D-09 MaxDP=5.56D-08 DE=-3.29D-13 OVMax= 2.86D-08

 SCF Done:  E(UPBE-PBE) =  -7.46107738515     A.U. after    6 cycles
             Convg  =    0.3786D-08             -V/T =  2.0152
 <Sx>= 0.0000 <Sy>= 0.0000 <Sz>= 0.5000 <S**2>= 0.7500 S= 0.5000
 <L.S>= 0.000000000000E+00
 KE= 7.349403957023D+00 PE=-1.705223241247D+01 EE= 2.241751070306D+00
 Annihilation of the first spin contaminant:
 S**2 before annihilation     0.7500,   after     0.7500
 Leave Link  502 at Thu Sep  6 15:53:31 2012, MaxMem=   33554432 cpu:       0.1
 (Enter /applications/gaussian9-C.01/g09/l601.exe)
 Copying SCF densities to generalized density rwf, IOpCl= 1 IROHF=0.

 **********************************************************************

            Population analysis using the SCF density.

 **********************************************************************

 Orbital symmetries:
 Alpha Orbitals:
       Occupied  (A1G) (A1G)
       Virtual   (T1U) (T1U) (T1U) (T1U) (T1U) (T1U) (A1G) (EG)
                 (EG) (T2G) (T2G) (T2G) (A1G)
 Beta  Orbitals:
       Occupied  (A1G)
       Virtual   (A1G) (T1U) (T1U) (T1U) (T1U) (T1U) (T1U) (A1G)
                 (EG) (EG) (T2G) (T2G) (T2G) (A1G)
 The electronic state is 2-A1G.
 Alpha  occ. eigenvalues --   -1.90586  -0.11935
 Alpha virt. eigenvalues --   -0.04997  -0.04997  -0.04997   0.05343   0.05343
 Alpha virt. eigenvalues --    0.05343   0.06929   0.20811   0.20811   0.20811
 Alpha virt. eigenvalues --    0.20811   0.20811   0.55010
  Beta  occ. eigenvalues --   -1.89815
  Beta virt. eigenvalues --    0.02283   0.09212   0.09212   0.09212   0.12755
  Beta virt. eigenvalues --    0.12755   0.12755   0.14917   0.40278   0.40278
  Beta virt. eigenvalues --    0.40278   0.40278   0.40278   0.67801
          Condensed to atoms (all electrons):
              1
     1  Li   3.000000
 Mulliken atomic charges:
              1
     1  Li   0.000000
 Sum of Mulliken atomic charges =   0.00000
 Mulliken charges with hydrogens summed into heavy atoms:
              1
     1  Li   0.000000
 Sum of Mulliken charges with hydrogens summed into heavy atoms =   0.00000
          Atomic-Atomic Spin Densities.
              1
     1  Li   1.000000
 Mulliken atomic spin densities:
              1
     1  Li   1.000000
 Sum of Mulliken atomic spin densities =   1.00000
 Electronic spatial extent (au):  <R**2>=             18.1521
 Charge=              0.0000 electrons
 Dipole moment (field-independent basis, Debye):
    X=              0.0000    Y=              0.0000    Z=              0.0000  Tot=              0.0000
 Quadrupole moment (field-independent basis, Debye-Ang):
   XX=             -8.1384   YY=             -8.1384   ZZ=             -8.1384
   XY=              0.0000   XZ=              0.0000   YZ=              0.0000
 Traceless Quadrupole moment (field-independent basis, Debye-Ang):
   XX=              0.0000   YY=              0.0000   ZZ=              0.0000
   XY=              0.0000   XZ=              0.0000   YZ=              0.0000
 Octapole moment (field-independent basis, Debye-Ang**2):
  XXX=              0.0000  YYY=              0.0000  ZZZ=              0.0000  XYY=              0.0000
  XXY=              0.0000  XXZ=              0.0000  XZZ=              0.0000  YZZ=              0.0000
  YYZ=              0.0000  XYZ=              0.0000
 Hexadecapole moment (field-independent basis, Debye-Ang**3):
 XXXX=            -39.8651 YYYY=            -39.8651 ZZZZ=            -39.8651 XXXY=              0.0000
 XXXZ=              0.0000 YYYX=              0.0000 YYYZ=              0.0000 ZZZX=              0.0000
 ZZZY=              0.0000 XXYY=            -13.2884 XXZZ=            -13.2884 YYZZ=            -13.2884
 XXYZ=              0.0000 YYXZ=              0.0000 ZZXY=              0.0000
 N-N= 0.000000000000D+00 E-N=-2.504764693060D+01  KE= 1.091145273121D+01
 Symmetry AG   KE= 1.091145273121D+01
 Symmetry B1G  KE= 1.302488074842D-35
 Symmetry B2G  KE= 5.734835553408D-36
 Symmetry B3G  KE= 5.734835553408D-36
 Symmetry AU   KE= 0.000000000000D+00
 Symmetry B1U  KE= 0.000000000000D+00
 Symmetry B2U  KE= 0.000000000000D+00
 Symmetry B3U  KE= 0.000000000000D+00
                          Isotropic Fermi Contact Couplings
        Atom                 a.u.       MegaHertz       Gauss      10(-4) cm-1
     1  Li(7)              0.17779     308.87166     110.21309     103.02850
 --------------------------------------------------------
       Center         ----  Spin Dipole Couplings  ----
                      3XX-RR        3YY-RR        3ZZ-RR
 --------------------------------------------------------
     1   Atom        0.000000      0.000000      0.000000
 --------------------------------------------------------
                        XY            XZ            YZ
 --------------------------------------------------------
     1   Atom        0.000000      0.000000      0.000000
 --------------------------------------------------------


 ---------------------------------------------------------------------------------
              Anisotropic Spin Dipole Couplings in Principal Axis System
 ---------------------------------------------------------------------------------

       Atom             a.u.   MegaHertz   Gauss  10(-4) cm-1        Axes

              Baa     0.0000     0.000     0.000     0.000  1.0000  0.0000  0.0000
     1 Li(7)  Bbb     0.0000     0.000     0.000     0.000  0.0000  0.0000  1.0000
              Bcc     0.0000     0.000     0.000     0.000  0.0000  1.0000  0.0000
 

 ---------------------------------------------------------------------------------

 No NMR shielding tensors so no spin-rotation constants.
 Leave Link  601 at Thu Sep  6 15:53:31 2012, MaxMem=   33554432 cpu:       0.2
 (Enter /applications/gaussian9-C.01/g09/l9999.exe)
 1\1\GINC-TITANE994\SP\UPBEPBE\CC-pVDZ\Li1(2)\BRUNEVAL\06-Sep-2012\0\\#
 p PBEPBE/cc-pVDZ 6D 10F scf=tight\\li\\0,2\Li\\Version=EM64L-G09RevC.0
 1\State=2-A1G\HF=-7.4610774\S2=0.75\S2-1=0.\S2A=0.75\RMSD=3.786e-09\Di
 pole=0.,0.,0.\Quadrupole=0.,0.,0.,0.,0.,0.\PG=OH [O(Li1)]\\@


 WOE UNTO THEM THAT CALL EVIL GOOD, AND GOOD EVIL      
 Job cpu time:  0 days  0 hours  0 minutes  0.8 seconds.
 File lengths (MBytes):  RWF=      9 Int=      0 D2E=      0 Chk=      1 Scr=      1
 Normal termination of Gaussian 09 at Thu Sep  6 15:53:31 2012.
